# vtk DataFile Version 3.0
vtk output
ASCII
DATASET POLYDATA
POINTS 6155 double
260.8213 87.7437 242.0961 260.1605 84.5022 236.3544 258.2447 89.3691 240.3997 
253.1371 63.5877 226.2561 255.3940 63.0741 225.6047 251.0076 63.1221 224.4999 
249.1037 64.8383 225.5564 232.1348 78.1182 251.1490 234.0870 82.7003 251.6682 
235.0604 80.5722 246.1824 253.4586 62.8990 224.0404 257.7597 63.9799 226.1937 
239.6746 52.6687 266.8914 243.4990 51.1160 259.3608 240.1935 54.5878 262.4794 
256.3003 63.5886 227.1172 254.1717 40.6465 250.4118 254.0683 43.0434 244.8879 
259.9043 41.2840 248.6987 255.9993 74.9611 238.5958 254.0534 78.9434 243.8060 
251.8622 76.9754 239.9992 258.6689 64.2619 227.6462 236.0594 51.8907 243.1181 
236.4004 54.3483 238.8359 240.0343 51.4119 239.1952 255.4958 62.5597 224.4138 
262.8856 51.9970 306.4016 261.4235 50.7836 307.6032 263.2154 51.7547 308.1561 
264.4267 53.0174 306.8819 264.8943 53.0726 308.5794 265.8083 54.0950 307.6113 
267.1714 55.2231 308.8742 266.1353 54.0185 309.0575 268.2836 56.8115 309.8231 
268.2637 56.0876 307.4665 268.8799 57.8814 310.4412 269.2503 57.6809 311.3485 
244.2625 48.0777 240.1457 239.9219 48.6413 244.0318 270.0296 59.0457 311.0415 
233.5394 54.2893 242.3724 246.9270 91.0201 252.2280 254.4968 91.9017 246.8878 
245.9900 90.0400 245.5132 235.7254 49.2791 247.7898 284.0745 68.5072 256.5085 
286.2522 68.7158 260.7898 285.6520 64.3366 259.4529 254.0317 88.1852 310.9620 
255.9239 88.8462 310.5180 255.0907 89.5591 310.6589 256.8164 90.1022 310.3121 
261.1986 84.5946 241.9071 260.8604 80.6739 237.7730 260.6668 63.4343 227.3891 
261.4615 60.5169 228.2018 257.2161 60.6207 225.8981 254.9634 65.0576 228.4947 
243.3848 48.1910 266.0921 251.0382 66.4405 227.3235 266.5401 40.0870 255.4742 
262.8990 39.5903 253.1195 265.5402 41.7418 250.8066 268.9555 45.0689 248.1434 
269.9758 43.2412 253.3929 262.7978 88.8701 309.6301 261.1470 89.8047 310.0543 
260.4812 89.2359 309.1710 257.9970 64.8194 228.9674 265.0403 88.0901 309.9445 
263.8667 88.7997 310.2855 251.5274 62.6516 223.4767 252.1425 61.3314 224.2825 
248.9326 63.3454 223.7662 246.3738 68.0285 226.1927 278.8422 75.5497 252.2832 
280.9394 70.9694 252.4032 277.8167 73.3724 247.6843 268.4124 84.4415 310.8526 
268.6373 84.3988 309.4722 269.2803 82.8835 310.5001 245.5142 65.5438 224.8855 
253.9029 68.6162 228.6784 276.3773 77.7537 247.7535 252.4028 87.4888 311.3227 
252.8741 87.2310 310.4843 273.3549 47.2766 250.7741 249.6266 70.8240 226.9059 
263.1456 69.3759 241.8873 260.1200 68.9742 239.9846 261.4707 67.2741 238.4625 
235.3959 50.0818 306.3140 237.2187 49.1389 306.3458 237.8300 50.6226 305.9778 
265.3166 67.0716 240.5590 261.9380 65.6984 229.0116 233.7148 50.9236 306.4666 
234.2972 51.9119 305.3708 232.1879 51.9739 306.3213 253.7413 53.8153 243.6878 
259.3115 54.5539 243.6711 256.1822 56.8776 239.2263 286.9820 60.1530 265.0253 
285.3844 59.0906 259.9931 231.9106 50.7215 307.1481 253.7117 73.7337 227.1351 
282.4398 67.0678 253.2794 229.8800 63.6623 255.2950 229.3955 67.8426 254.9688 
230.2077 64.3119 248.9122 230.3304 52.7477 306.0875 230.5477 51.1593 306.9055 
248.0044 62.6902 224.3610 248.8776 76.1648 226.4113 242.2645 69.4506 225.8284 
230.5822 59.7266 248.7575 264.4920 65.3361 230.0067 260.8537 73.5709 243.3940 
258.6081 73.8583 240.5852 258.7998 70.5550 240.3117 261.6100 71.2570 242.7766 
264.8029 62.5273 230.2367 250.8843 80.4903 250.7603 246.4178 78.5006 252.7742 
249.3093 78.6653 246.3186 231.5286 54.9166 244.7794 231.3516 57.4962 243.1006 
233.5956 56.5383 239.0080 239.9203 68.0286 226.7176 244.1121 64.2752 225.2286 
254.6598 88.0936 309.9123 258.4364 89.5787 310.0132 260.1134 90.8881 309.8047 
260.8966 65.6149 229.4450 259.2550 58.0078 228.6938 267.5792 85.4228 310.1859 
268.0520 86.3292 310.6236 266.5796 86.6656 310.0504 269.4250 83.4984 311.3156 
270.0735 81.5678 311.2455 273.9326 78.5808 244.3605 275.3468 74.8707 243.3922 
249.0330 42.6887 247.4239 248.9206 45.2223 242.0244 264.0566 58.5262 231.0534 
244.4391 72.3594 226.5305 260.5122 90.9969 246.4235 261.7022 81.9244 242.0384 
253.3500 58.2896 226.9502 232.7041 52.2017 246.5272 269.2901 57.4620 308.5782 
237.5498 85.0959 246.1824 240.6923 88.0928 245.6094 240.7140 86.6534 240.6776 
282.6151 72.3554 256.7770 263.4787 81.0453 244.0815 265.1669 78.0608 241.3114 
262.2430 78.7955 239.5621 257.0069 67.1915 229.9586 247.9549 60.1388 225.7334 
269.6193 56.5634 306.2666 263.4525 89.9943 309.8748 244.2732 45.3520 245.3292 
283.1819 57.3017 255.8217 279.9618 55.1114 251.9304 281.1299 60.4781 250.4414 
239.5343 63.2411 228.0624 258.3572 90.7886 309.9401 262.0881 91.0305 309.5783 
256.5429 88.8289 309.2301 253.5282 93.5536 254.7388 267.1380 87.9767 310.1869 
263.7399 66.7122 230.3784 239.8794 72.6631 227.1528 265.8653 87.1823 308.8348 
267.5718 86.1485 308.4359 243.6300 61.5667 226.4049 269.6328 78.3100 242.6020 
271.6148 75.3067 240.5360 264.4631 54.9126 245.1523 261.9438 57.5368 240.1946 
266.0342 66.9787 231.3199 269.1662 62.0611 244.7470 266.5885 63.5233 240.4985 
266.3787 58.8428 242.2271 268.6702 56.4217 247.2476 253.5476 79.7829 226.9299 
256.9184 55.6765 230.1318 233.1053 49.8074 306.8117 236.2941 51.4771 305.1618 
261.5903 55.0146 232.3626 283.4003 62.4025 254.6387 236.4951 66.7072 230.6386 
242.0501 63.6317 246.7014 240.1660 63.2945 251.8975 242.3185 59.9702 247.9426 
262.8452 67.6624 231.1038 256.8805 71.1956 229.3548 259.7641 67.0976 230.3728 
259.7861 49.5917 307.2841 260.8167 49.3131 307.9244 248.8835 49.1267 254.6443 
251.5034 51.0572 248.9328 246.7184 52.5553 252.2229 231.2351 79.6501 256.6687 
230.2813 75.8788 255.0372 266.2999 68.3741 232.5034 229.5140 75.4950 260.8960 
236.5930 71.6143 229.2292 268.2728 60.8901 233.7524 268.0607 65.3838 232.7139 
258.4702 89.3527 308.0647 270.5243 79.6654 311.9975 270.8251 78.4726 310.7052 
270.3630 77.6735 312.9373 262.8425 38.0991 257.0960 258.8607 38.9980 253.9175 
270.5101 68.3672 235.0671 267.3359 54.8655 306.0762 264.8263 89.2510 310.0919 
253.2175 89.2045 310.8766 247.7878 81.5102 228.1193 249.0805 86.4046 311.2875 
248.4665 84.6389 310.8611 250.7935 86.2358 310.9557 234.7011 48.8333 306.1397 
243.4091 76.9691 228.0640 228.9827 70.6273 260.8221 229.4914 72.0478 255.2930 
259.6836 93.9510 252.5278 253.4766 87.7306 308.9483 262.1556 84.7022 246.9677 
252.3055 94.1335 260.7925 257.9084 95.6672 259.2470 257.7967 77.5304 242.4410 
259.3309 92.0793 309.0680 261.6791 88.2371 246.7456 269.0651 85.1616 311.0420 
270.7292 76.6937 311.5499 266.7802 55.6362 235.1186 271.4694 58.2651 238.0995 
257.4012 76.6062 228.6735 230.4296 55.8526 249.1537 243.6000 58.3610 228.1679 
259.8592 96.9419 264.6050 254.4021 95.8815 266.2663 228.8130 72.7390 266.6592 
288.4211 64.9481 265.7214 247.1802 85.0673 310.9914 270.4611 84.9997 310.7770 
248.1674 56.5919 228.4669 244.9686 50.3532 308.6380 245.5783 49.1651 309.1364 
246.5759 50.1951 308.7811 284.1069 54.6566 260.9080 248.9073 40.7803 252.9130 
271.0806 80.4495 309.4088 272.0074 64.2634 236.7028 270.6828 57.2881 306.3070 
270.4865 60.6911 312.7743 271.0888 59.9101 313.1876 268.7011 55.8423 310.6480 
266.2050 53.8003 304.9469 270.7687 58.4940 312.4823 285.9238 56.3719 264.3853 
264.8896 52.7491 304.0600 270.2995 81.8574 309.6280 270.0966 83.3437 308.5657 
262.0795 50.3103 308.2030 267.4151 54.1241 309.7137 262.1080 89.1435 307.7180 
252.5738 67.1150 234.1638 248.2005 67.6606 235.3839 251.3346 64.4500 233.5492 
229.3086 77.1104 267.2584 264.7022 51.9113 308.7910 270.8164 83.1548 311.2305 
271.1778 81.4653 311.6717 265.3956 71.9890 245.3818 286.7666 55.9810 270.1504 
238.8093 76.3487 230.2012 265.3590 70.2304 233.5826 249.3596 70.4102 235.1237 
269.8007 85.3886 306.9842 263.8432 50.3155 308.2548 242.5136 81.3192 231.4430 
242.9543 74.8160 254.4016 242.2967 71.2635 250.0642 245.2977 75.5790 248.5162 
261.9065 69.9921 232.0669 252.8496 54.4238 230.6148 259.2110 70.0958 230.9074 
263.2688 51.9156 304.3638 247.0896 91.6087 259.1483 288.4044 60.6924 269.9663 
270.7002 60.5357 311.3768 240.5684 67.1979 251.1167 242.7672 67.5615 245.5245 
234.5943 69.9369 233.9204 266.1037 52.8341 309.1863 271.0334 58.2987 307.7131 
269.6594 70.7150 235.6982 238.1503 55.7207 273.2846 238.3178 57.0722 268.2617 
251.1494 87.8496 311.2723 244.1514 43.1795 250.5936 236.8789 86.4561 251.5221 
275.1352 82.3009 248.5147 239.7657 46.1221 249.0108 235.6614 61.6287 232.9112 
234.1140 53.3237 304.5574 239.3162 59.5290 229.4503 240.9285 88.9156 251.4286 
277.2817 50.1199 253.7927 276.2362 52.3264 248.3467 271.2381 61.3503 313.9289 
232.0356 53.4340 305.3064 256.8701 51.3923 247.7900 257.7818 52.4085 233.6069 
271.7373 81.7960 246.4317 263.6723 50.8333 237.3324 268.1577 66.0251 243.2301 
235.7811 52.5492 304.2523 235.6355 74.6873 233.7652 234.4460 65.8340 234.9315 
238.4777 61.5991 277.3004 238.6314 57.7123 278.2698 237.8212 59.4335 273.4906 
280.9973 52.6573 257.2381 229.1943 67.0746 260.2025 237.8487 60.9579 268.4653 
239.7882 58.1575 262.6952 249.5524 85.1728 309.4142 238.6421 62.0451 262.8995 
259.9432 50.0083 305.0149 258.5361 49.2084 306.8269 253.7965 38.9097 255.8784 
266.4953 89.4130 309.7125 230.8241 80.3539 262.4314 265.7050 90.7744 309.1323 
270.0165 86.7245 310.1941 271.3969 59.5831 309.1392 246.8479 71.5561 238.1997 
269.4431 55.5909 304.3850 239.1298 51.9271 304.8197 270.4404 75.7595 313.6693 
251.8887 85.0247 229.5439 248.6647 49.3831 308.6132 247.8398 50.1903 308.0464 
247.6689 49.4981 309.4043 255.9840 90.9520 309.9050 254.6949 90.9874 309.8843 
257.4907 91.8561 309.2418 268.8994 87.3085 305.5754 245.5861 85.3799 231.8768 
272.6378 57.6550 304.5941 231.1752 49.7335 306.6030 272.1008 61.1305 249.8582 
269.2837 88.2313 309.6996 254.6211 48.4155 252.7095 264.4628 88.3767 307.8187 
272.5426 79.1610 307.1538 274.9948 67.0310 239.9435 258.7957 44.5820 242.8079 
263.9997 44.0575 245.6959 271.1533 56.5782 304.3379 271.1478 62.1537 312.8364 
247.4687 83.7588 309.2612 249.7057 89.0040 310.4485 247.0520 87.4447 310.3263 
238.5768 79.9196 235.3594 268.3507 54.4650 303.0062 246.9447 49.0351 309.6201 
[...]
POINT_DATA 6155
FIELD FieldData 1
subpartID 1 6155 short
2 2 2 2 2 2 2 2 2 
2 2 2 1 1 1 2 2 2 
2 1 1 1 2 2 2 2 2 
2 2 2 2 2 2 2 2 2 
1 2 2 2 2 2 2 2 2 
2 2 2 2 2 2 2 2 2 
2 2 2 2 2 2 1 2 2 
2 2 2 2 2 2 2 2 2 
2 2 2 2 2 2 2 2 2 
2 2 2 2 2 2 2 2 2 
1 1 1 2 2 2 1 2 2 
2 2 1 1 1 2 2 2 2 
2 2 2 2 2 2 2 2 2 
2 2 1 1 1 1 2 1 1 
1 2 2 2 2 2 2 2 2 
2 2 2 2 2 2 2 2 2 
2 2 2 2 2 2 2 2 1 
2 2 2 2 2 2 2 2 2 
1 2 2 2 2 2 2 2 2 
2 2 2 2 2 2 2 2 2 
2 1 1 2 1 1 1 1 2 
2 2 2 2 2 2 1 1 1 
2 2 2 2 2 1 1 1 2 
2 2 2 2 2 2 2 2 2 
2 2 2 2 1 2 2 2 2 
2 2 2 2 2 2 2 2 2 
2 2 1 2 2 2 2 2 2 
2 2 2 2 2 2 2 2 2 
2 2 2 2 2 2 2 2 1 
2 2 2 1 2 2 1 2 2 
2 2 2 1 1 1 2 2 2 
2 1 2 2 2 1 2 2 2 
1 1 1 2 2 2 2 2 2 
2 1 1 2 2 1 2 1 1 
2 2 2 2 2 2 2 2 2 
2 2 2 2 1 2 2 2 1 
2 2 2 1 1 1 2 2 1 
1 2 1 2 2 2 2 2 2 
2 1 1 1 2 2 2 2 2 
2 2 2 2 1 2 1 2 1 
2 1 2 1 2 2 2 1 2 
2 2 2 2 1 2 2 2 2 
2 2 2 1 2 2 1 2 1 
2 2 2 1 1 2 1 2 2 
1 2 1 1 2 1 2 1 2 
2 2 2 1 1 1 2 2 2 
2 1 1 2 2 2 2 2 1 
2 2 1 1 2 2 1 1 2 
2 2 2 2 2 1 2 2 1 
2 2 1 1 1 1 2 2 2 
2 1 1 1 2 1 2 2 2 
2 2 2 2 1 1 2 1 2 
2 2 2 2 2 1 1 2 2 
1 2 2 2 2 2 1 2 2 
2 2 1 2 2 1 2 2 2 
2 2 2 2 1 2 2 2 2 
2 1 2 1 2 2 1 2 2 
2 2 2 2 2 2 2 1 2 
1 2 2 2 2 2 2 1 2 
2 2 2 2 1 1 1 2 2 
1 2 1 2 2 2 2 2 2 
2 2 1 2 1 1 1 1 1 
2 1 2 2 2 1 1 2 2 
2 2 1 2 2 2 1 1 2 
2 2 2 2 2 1 1 2 2 
1 1 1 2 2 2 1 2 2 
2 2 2 1 2 2 2 1 1 
2 2 2 2 2 1 2 2 2 
2 2 2 2 2 2 2 2 2 
2 2 1 2 2 1 1 2 1 
2 1 2 1 2 2 1 2 1 
2 2 2 2 1 2 2 2 2 
1 2 2 1 2 2 1 2 2 
2 2 2 2 2 2 1 2 2 
2 2 2 2 2 2 2 2 2 
1 2 2 1 2 2 1 2 1 
2 2 1 1 2 2 2 2 1 
1 2 2 2 2 1 2 2 2 
2 2 2 2 1 2 2 2 2 
2 2 2 2 1 2 2 2 1 
2 2 2 2 1 1 2 2 1 
2 2 1 2 1 1 2 2 2 
2 2 1 1 1 2 1 2 2 
1 2 2 2 2 2 2 1 1 
1 2 2 2 2 2 2 1 2 
2 2 2 2 1 2 2 1 2 
2 1 2 1 1 2 2 2 1 
2 1 1 2 1 1 2 2 2 
2 2 2 2 2 1 2 1 1 
2 2 2 2 2 2 1 2 2 
1 2 2 2 1 2 2 2 1 
2 2 1 2 2 2 2 2 2 
2 2 2 1 2 2 1 1 1 
2 1 2 2 1 2 2 2 1 
2 2 2 1 2 1 2 2 2 
2 2 2 1 1 1 1 2 2 
2 1 2 2 2 2 1 1 1 
2 2 2 1 2 2 2 2 1 
2 2 2 1 1 2 2 2 2 
2 2 2 1 2 2 2 2 1 
1 2 2 2 2 1 2 1 1 
2 2 2 2 2 2 2 1 1 
1 1 2 1 2 2 2 2 1 
2 2 2 1 2 2 1 2 2 
2 2 1 1 2 2 2 2 1 
2 1 1 1 1 1 2 2 1 
2 2 1 2 1 2 1 2 2 
2 2 1 2 1 2 2 2 2 
2 1 2 1 2 2 2 1 2 
1 1 2 2 1 1 2 2 2 
1 2 1 2 2 1 2 2 2 
2 2 1 2 1 1 1 2 2 
1 2 2 1 2 2 2 1 1 
2 2 2 2 1 1 1 2 1 
2 2 2 1 2 1 1 2 2 
2 2 1 1 2 1 2 1 1 
2 2 1 2 1 2 2 2 2 
2 2 2 2 2 2 2 2 1 
2 2 2 1 2 2 2 2 2 
1 1 1 2 1 1 2 2 2 
2 1 1 1 1 1 2 2 2 
2 1 2 1 2 2 2 2 2 
2 2 2 2 2 1 2 2 2 
1 1 2 1 2 2 2 1 1 
1 2 2 2 1 1 1 2 1 
1 1 2 2 2 2 2 2 2 
2 1 2 2 2 1 1 1 1 
1 2 2 1 1 1 2 2 1 
1 1 2 1 2 2 1 2 2 
2 1 2 1 2 1 2 2 2 
2 2 1 1 2 2 2 1 2 
1 2 2 2 2 2 1 2 2 
2 1 2 2 2 1 2 2 2 
2 2 2 2 2 2 1 1 2 
2 2 1 1 2 2 2 2 1 
1 2 2 2 1 2 1 2 1 
1 2 2 2 2 2 1 2 1 
2 2 1 2 1 2 1 2 2 
1 1 2 2 1 2 2 1 1 
1 2 2 2 2 2 1 2 2 
1 1 2 2 2 1 1 2 2 
2 2 2 2 1 1 2 1 2 
1 2 2 1 2 2 2 2 2 
2 2 1 2 2 2 2 2 2 
2 1 1 2 2 1 1 2 2 
2 1 2 2 1 2 2 2 2 
1 2 2 1 2 1 1 2 2 
1 1 1 2 2 2 2 2 2 
2 2 1 2 1 2 1 1 1 
1 1 2 2 2 1 2 2 2 
2 1 2 1 1 2 2 2 1 
2 2 2 2 2 2 1 1 2 
1 1 2 2 2 2 2 1 2 
1 2 2 2 1 2 1 2 2 
2 2 2 1 2 1 1 2 1 
2 2 1 1 2 2 1 2 2 
1 1 2 1 2 2 2 1 2 
2 2 2 2 1 1 1 2 2 
1 1 2 1 2 2 2 1 1 
2 2 1 2 1 1 1 2 2 
2 1 2 1 1 2 2 2 2 
2 2 1 2 1 1 1 2 2 
2 1 1 2 2 1 1 2 2 
1 2 2 2 1 2 2 2 1 
1 2 1 2 2 1 1 2 1 
2 2 2 2 2 2 2 2 1 
2 2 1 2 2 1 1 2 2 
2 2 1 1 2 2 2 2 1 
1 2 2 1 2 2 2 2 2 
1 1 2 2 2 2 1 2 2 
1 1 2 2 1 1 2 1 1 
2 2 2 2 2 2 2 1 1 
2 1 1 2 2 2 1 2 1 
1 2 2 2 2 2 2 1 1 
2 2 2 1 2 2 1 1 2 
2 1 2 2 2 2 2 2 1 
2 2 2 2 2 2 1 2 2 
2 1 2 2 2 2 2 2 1 
1 1 2 1 2 2 1 1 1 
2 1 2 2 1 1 2 2 1 
1 2 2 1 2 2 2 2 2 
2 1 2 1 1 2 2 2 2 
1 1 1 2 1 2 2 2 1 
2 2 2 2 2 2 2 2 2 
1 1 1 2 2 2 2 2 2 
2 2 1 2 2 1 1 2 1 
1 2 1 1 2 2 2 2 2 
1 2 2 2 1 2 2 2 2 
2 2 2 2 1 1 2 1 1 
2 2 2 1 2 1 1 2 2 
1 1 1 1 1 1 1 1 2 
1 2 2 1 2 2 2 1 2 
2 2 2 2 1 2 2 2 2 
1 1 2 2 2 2 2 2 2 
1 2 2 1 2 2 2 1 2 
1 2 2 2 2 1 2 2 2 
2 1 2 2 2 2 2 1 1 
2 2 1 1 1 2 1 1 2 
2 1 2 1 1 2 1 2 2 
2 2 2 2 2 1 2 2 2 
1 1 1 1 1 2 2 2 2 
1 2 1 2 1 2 2 1 1 
1 1 2 2 2 2 1 2 2 
2 1 2 1 1 2 2 2 2 
2 1 1 1 1 2 2 2 1 
2 2 1 2 2 1 2 2 1 
1 1 2 1 2 1 2 1 2 
2 2 2 1 2 2 1 2 1 
2 1 2 1 2 2 2 2 2 
2 1 2 2 2 2 1 2 2 
2 1 2 1 2 2 2 2 1 
2 2 1 2 2 2 2 2 2 
2 2 2 1 2 1 1 2 2 
2 1 2 2 2 2 1 2 2 
2 2 1 1 1 1 1 1 2 
2 2 2 2 2 2 1 1 2 
2 1 1 1 2 2 2 1 1 
1 2 1 2 1 2 1 2 2 
1 1 1 2 1 1 1 2 2 
2 1 2 2 2 1 2 2 2 
1 1 1 2 2 2 2 2 2 
2 2 2 2 2 1 1 2 2 
1 1 2 1 1 2 2 1 1 
2 2 1 1 2 1 2 1 1 
1 1 2 2 2 1 2 2 2 
2 1 1 2 2 2 2 2 2 
2 2 2 2 2 1 2 2 1 
2 1 1 2 1 2 2 2 1 
2 1 2 1 1 1 1 2 1 
2 2 1 1 1 1 2 1 2 
2 1 2 2 2 1 1 1 1 
2 2 1 2 1 2 2 1 1 
1 1 2 2 2 2 2 2 2 
2 2 1 2 2 2 1 2 2 
1 2 2 1 2 2 1 1 2 
2 1 2 2 1 1 1 2 2 
1 2 1 1 2 2 2 2 2 
2 2 2 1 2 1 1 1 2 
2 2 2 2 1 1 2 2 1 
2 1 2 2 1 1 2 2 1 
2 2 1 1 2 1 2 2 2 
2 1 1 2 2 1 2 2 1 
2 2 1 1 1 2 2 1 2 
1 1 2 2 2 1 2 1 2 
2 2 2 1 2 1 2 2 2 
1 1 2 2 2 1 2 1 2 
2 2 1 1 2 1 2 2 2 
2 1 1 2 2 2 2 2 1 
1 1 2 2 2 1 2 2 2 
1 2 1 2 1 1 2 2 2 
2 1 2 2 2 2 1 2 2 
2 1 2 1 2 1 2 2 2 
1 2 2 1 2 2 2 2 2 
2 2 1 2 2 2 1 1 2 
1 2 1 2 2 2 1 2 2 
2 1 2 2 2 1 2 2 1 
2 2 1 2 1 1 1 2 2 
1 2 1 2 2 1 2 1 1 
2 2 1 2 2 2 2 1 2 
1 2 2 2 2 2 1 2 2 
2 2 1 2 2 2 1 1 2 
2 1 2 1 2 1 2 1 2 
1 1 1 2 2 2 2 1 1 
2 1 2 2 2 2 2 2 2 
2 2 2 1 2 1 2 1 2 
2 2 1 2 2 2 1 1 1 
1 2 2 1 2 2 2 2 1 
1 1 2 2 2 2 1 1 2 
2 2 2 1 2 2 2 2 1 
1 2 2 1 2 2 1 2 2 
2 2 1 1 1 1 1 2 2 
1 1 2 2 2 2 2 1 1 
2 2 2 2 2 2 2 1 1 
2 2 2 1 1 2 2 1 1 
2 2 1 1 2 2 2 1 2 
1 1 1 1 2 2 2 2 2 
2 2 1 1 2 2 1 2 1 
1 1 2 1 2 2 2 2 2 
2 2 2 1 1 2 2 2 2 
1 1 2 2 1 1 2 1 2 
2 2 2 2 2 2 1 1 1 
2 1 2 2 2 2 2 2 2 
2 1 1 1 2 1 2 2 2 
2 1 2 1 2 1 1 2 1 
2 2 1 2 2 1 2 1 2 
2 2 2 1 2 2 1 1 2 
1 1 2 1 1 2 2 2 1 
2 2 1 2 1 1 2 2 1 
2 2 2 1 2 2 2 2 1 
2 1 2 1 2 2 2 1 2 
1 2 2 1 2 2 2 2 1 
2 2 1 2 1 2 1 1 1 
2 1 2 2 2 1 2 1 2 
2 1 2 2 1 1 2 2 2 
1 2 2 1 1 2 2 1 1 
1 2 2 2 2 2 1 2 2 
2 1 2 2 2 2 1 2 1 
2 2 2 2 4 4 4 4 4 
4 4 4 4 4 4 4 4 4 
4 4 4 4 4 4 4 4 4 
4 4 4 4 4 4 4 4 4 
4 4 4 4 4 4 4 4 4 
4 4 4 4 4 4 4 4 4 
4 4 4 4 4 4 4 4 4 
4 4 4 4 4 4 4 4 4 
4 4 4 4 4 4 4 4 4 
4 4 4 4 4 4 4 4 4 
4 4 4 4 4 4 4 4 4 
4 4 4 4 4 4 4 4 4 
4 4 4 4 4 4 4 4 4 
4 4 4 4 4 4 4 4 4 
4 4 4 4 4 4 4 4 4 
4 4 4 4 4 4 4 4 4 
4 4 4 4 4 4 4 4 4 
4 4 4 4 4 4 4 4 4 
4 4 4 4 4 4 4 4 4 
4 4 4 4 4 4 4 4 4 
4 4 4 4 4 4 4 4 4 
4 4 4 4 4 4 4 4 4 
4 4 4 4 4 4 4 4 4 
4 4 4 4 4 4 4 4 4 
4 4 4 4 4 4 4 4 4 
4 4 4 4 4 4 4 4 4 
4 4 4 4 4 4 4 4 4 
4 4 4 4 4 4 4 4 4 
4 4 4 4 4 4 4 4 4 
4 4 4 4 4 4 4 4 4 
4 4 4 4 4 4 4 4 4 
4 4 4 4 4 4 4 4 4 
4 4 4 4 4 4 4 4 4 
4 4 4 4 4 4 4 4 4 
4 4 4 4 4 4 4 4 4 
4 4 4 4 4 4 4 4 4 
4 4 4 4 4 4 4 4 4 
4 4 4 4 4 4 4 4 4 
4 4 4 4 4 4 4 4 4 
4 4 4 4 4 4 4 4 4 
4 4 4 4 4 4 4 4 4 
4 4 4 4 4 4 4 4 4 
4 4 4 4 4 4 4 4 4 
4 4 4 4 4 4 4 4 4 
4 4 4 4 4 4 4 4 4 
4 4 4 4 4 4 4 4 4 
4 4 4 4 4 4 4 4 4 
4 4 4 4 4 4 4 4 4 
4 4 4 4 4 4 4 4 4 
4 4 4 4 4 4 4 4 4 
4 4 4 4 4 4 4 4 4 
4 4 4 4 4 4 4 4 4 
4 4 4 4 4 4 4 4 4 
4 4 4 4 4 4 4 4 4 
4 4 4 4 4 4 4 4 4 
4 4 4 4 4 4 4 4 4 
4 4 4 4 4 4 4 4 4 
4 4 4 4 4 4 4 4 4 
4 4 4 4 4 4 4 4 4 
4 4 4 4 4 4 4 4 4 
4 4 4 4 4 4 4 4 4 
4 4 4 4 4 4 4 4 4 
4 4 4 4 4 4 4 4 4 
4 4 4 4 4 4 4 4 4 
4 4 4 4 4 4 4 4 4 
4 4 4 4 4 4 4 4 4 
4 4 4 4 4 4 4 4 4 
4 4 4 4 4 4 4 4 4 
4 4 4 4 4 4 4 4 4 
4 4 4 4 4 4 4 4 4 
4 4 4 4 4 4 4 4 4 
4 4 4 4 4 4 4 4 4 
4 4 4 4 4 4 4 4 4 
4 4 4 4 4 4 4 4 4 
4 4 4 4 4 4 4 4 4 
4 4 4 4 4 4 4 4 4 
4 4 4 4 4 4 4 4 4 
4 4 4 4 4 4 4 4 4 
4 4 4 4 4 4 4 4 4 
4 4 4 4 4 4 4 4 4 
4 4 4 4 4 4 4 4 4 
4 4 4 4 4 4 4 4 4 
4 4 4 4 4 4 4 4 4 
4 4 4 4 4 4 4 4 4 
4 4 4 4 4 4 4 4 4 
4 4 4 4 4 4 4 4 4 
4 4 4 4 4 4 4 4 4 
4 4 4 4 4 4 4 4 4 
4 4 4 4 4 4 4 4 4 
4 4 4 4 4 4 4 4 4 
4 4 4 4 4 4 4 4 4 
4 4 4 4 4 4 4 4 4 
4 4 4 4 4 4 4 4 4 
4 4 4 4 4 4 4 4 4 
4 4 4 4 4 4 4 4 4 
4 4 4 4 4 4 4 4 4 
4 4 4 4 4 4 4 4 4 
4 4 4 4 4 4 4 4 4 
4 4 4 4 4 4 4 4 4 
4 4 4 4 4 4 4 4 4 
4 4 4 4 4 4 4 4 4 
4 4 4 4 4 4 4 4 4 
4 4 4 4 4 4 4 4 4 
4 4 4 4 4 4 4 4 4 
4 4 4 4 4 4 4 4 4 
4 4 4 4 4 4 4 4 4 
4 4 4 4 4 4 4 4 4 
4 4 4 4 4 4 4 4 4 
4 4 4 4 4 4 4 4 4 
4 4 4 4 4 4 4 4 4 
4 4 4 4 4 4 4 4 4 
4 4 4 4 4 4 4 4 4 
4 4 4 4 4 4 4 4 4 
4 4 4 4 4 4 4 4 4 
4 4 4 4 4 4 4 4 4 
4 4 4 4 4 4 4 4 4 
4 4 4 4 4 4 4 4 4 
4 4 4 4 4 4 4 4 4 
4 4 4 4 4 4 4 4 4 
4 4 4 4 4 4 4 4 4 
4 4 4 4 4 4 4 4 4 
4 4 4 4 4 4 4 4 4 
4 4 4 4 4 4 4 4 4 
4 4 4 4 4 4 4 4 4 
4 4 4 4 4 4 4 4 4 
4 4 4 4 4 4 4 4 4 
4 4 4 4 4 4 4 4 4 
4 4 4 4 4 4 4 4 4 
4 4 4 4 4 4 4 4 4 
4 4 4 4 4 4 4 4 4 
4 4 4 4 4 4 4 4 4 
4 4 4 4 4 4 4 4 4 
4 4 4 4 4 4 4 4 4 
4 4 4 4 4 4 4 4 4 
4 4 4 4 4 4 4 4 4 
4 4 4 4 4 4 4 4 4 
4 4 4 4 4 4 4 4 4 
4 4 4 4 4 4 4 4 4 
4 4 4 4 4 4 4 4 4 
4 4 4 4 4 4 4 4 4 
4 4 4 4 4 4 4 4 4 
4 4 4 4 4 4 4 4 4 
4 4 4 4 4 4 4 4 4 
4 4 4 4 4 4 4 4 4 
4 4 4 4 4 4 4 4 4 
4 4 4 4 4 4 4 4 4 
4 4 4 4 4 4 4 4 4 
4 4 4 4 4 4 4 4 4 
4 4 4 4 4 4 4 4 4 
4 4 4 4 4 4 4 4 4 
4 4 4 4 4 4 4 4 4 
4 4 4 4 4 4 4 4 4 
4 4 4 4 4 4 4 4 4 
4 4 4 4 4 4 4 4 4 
4 4 4 4 4 4 4 4 4 
4 4 4 4 4 4 4 4 4 
4 4 4 4 4 4 4 4 4 
4 4 4 4 4 4 4 4 4 
4 4 4 4 4 4 4 4 4 
4 4 4 4 4 4 4 4 4 
4 4 4 4 4 4 4 4 4 
4 4 4 4 4 4 4 4 4 
4 4 4 4 4 4 4 4 4 
4 4 4 4 4 4 4 4 4 
4 4 4 4 4 4 4 4 4 
4 4 4 4 4 4 4 4 4 
4 4 4 4 4 4 4 4 4 
4 4 4 4 4 4 4 4 4 
4 4 4 4 4 4 4 4 4 
4 4 4 4 4 4 4 4 4 
4 4 4 4 4 4 4 4 4 
4 4 4 4 4 4 4 4 4 
4 4 4 4 4 4 4 4 4 
4 4 4 4 4 4 4 4 4 
4 4 4 4 4 4 4 4 4 
4 4 4 4 4 4 4 4 4 
4 4 4 4 4 4 4 4 4 
4 4 4 4 4 4 4 4 4 
4 4 4 4 4 4 4 4 4 
4 4 4 4 4 4 4 4 4 
4 4 4 4 4 4 4 4 4 
4 4 4 4 4 4 4 4 4 
4 4 4 4 4 4 4 4 4 
4 4 4 4 4 4 4 4 4 
4 4 4 4 4 4 4 4 4 
4 4 4 4 4 4 4 4 4 
4 4 4 4 4 4 4 4 4 
4 4 4 4 4 4 4 4 4 
4 4 4 4 4 4 4 4 4 
4 4 4 4 4 4 4 4 4 
4 4 4 4 4 4 4 4 4 
4 4 4 4 4 4 4 4 4 
4 4 4 4 4 4 4 4 4 
4 4 4 4 4 4 4 4 4 
4 4 4 4 4 4 4 4 4 
4 4 4 4 4 4 4 4 4 
4 4 4 4 4 4 4 4 4 
4 4 4 4 4 4 4 4 4 
4 4 4 4 4 4 4 4 4 
4 4 4 4 4 4 4 4 4 
4 4 4 4 4 4 4 4 4 
4 4 4 4 4 4 4 4 4 
4 4 4 4 4 4 4 4 4 
4 4 4 4 4 4 4 4 4 
4 4 4 4 4 4 4 4 4 
4 4 4 4 4 4 4 4 4 
4 4 4 4 4 4 4 4 4 
4 4 4 4 4 4 4 4 4 
4 4 4 4 4 4 4 4 4 
4 4 4 4 4 4 4 4 4 
4 4 4 4 4 4 4 4 4 
4 4 4 4 4 4 4 4 4 
4 4 4 4 4 4 4 4 4 
4 4 4 4 4 4 4 4 4 
4 4 4 4 4 4 4 4 4 
4 4 4 4 4 4 4 4 4 
4 4 4 4 4 4 4 4 4 
4 4 4 4 4 4 4 4 4 
4 4 4 4 4 4 4 4 4 
4 4 4 4 4 4 4 4 4 
4 4 4 4 4 4 4 4 4 
4 4 4 4 4 4 4 4 4 
4 4 4 4 4 4 4 4 4 
4 4 4 4 4 4 4 4 4 
4 4 4 4 4 4 4 4 4 
4 4 4 4 4 4 4 4 4 
4 4 4 4 4 4 4 4 4 
4 4 4 4 4 4 4 4 4 
4 4 4 4 4 4 4 4 4 
4 4 4 4 4 4 4 4 4 
4 4 4 4 4 4 4 4 4 
4 4 4 4 4 4 4 4 4 
4 4 4 4 4 4 4 4 4 
4 4 4 4 4 4 4 4 4 
4 4 4 4 4 4 4 4 4 
4 4 4 4 4 4 4 4 4 
4 4 4 4 4 4 4 4 4 
4 4 4 4 4 4 4 4 4 
4 4 4 4 4 4 4 4 4 
4 4 4 4 4 4 4 4 4 
4 4 4 4 4 4 4 4 4 
4 4 4 4 4 4 4 4 4 
4 4 4 4 4 4 4 4 4 
4 4 4 4 4 4 4 4 4 
4 4 4 4 4 4 4 4 4 
4 4 4 4 4 4 4 4 4 
4 4 4 4 4 4 4 4 4 
4 4 4 4 4 4 4 4 4 
4 4 4 4 4 4 4 4 4 
4 4 4 4 4 4 4 4 4 
4 4 4 4 4 4 4 4 4 
4 4 4 4 4 4 4 4 4 
4 4 4 4 4 4 4 4 4 
4 4 4 4 4 4 4 4 4 
4 4 4 4 4 4 4 4 4 
4 4 4 4 4 4 4 4 4 
4 4 4 4 4 4 4 4 4 
4 4 4 4 4 4 4 4 4 
4 4 4 4 4 4 4 4 4 
4 4 4 4 4 4 4 4 4 
4 4 4 4 4 4 4 4 4 
4 4 4 4 4 4 4 4 4 
4 4 4 4 4 4 4 4 4 
4 4 4 4 4 4 4 4 4 
4 4 4 4 4 4 4 4 4 
4 4 4 4 4 4 4 4 4 
4 4 4 4 4 4 4 4 4 
4 4 4 4 4 4 4 4 4 
4 4 4 4 4 4 4 4 4 
4 4 4 4 4 4 4 4 4 
4 4 4 4 4 4 4 4 4 
4 4 4 4 4 4 4 4 4 
4 4 4 4 4 4 4 4 4 
4 4 4 4 4 4 4 4 4 
4 4 4 4 4 4 4 4 4 
4 4 4 4 4 4 4 4 4 
4 4 4 4 4 4 4 4 4 
4 4 4 4 4 4 4 4 4 
4 4 4 4 4 4 4 4 4 
4 4 4 4 4 4 4 4 4 
4 4 4 4 4 4 4 4 4 
4 4 4 4 4 4 4 4 4 
4 4 4 4 4 4 4 4 4 
4 4 4 4 4 4 4 4 4 
4 4 4 4 4 4 4 4 4 
4 4 4 4 4 4 4 4 4 
4 4 4 4 4 4 4 4 4 
4 4 4 4 4 4 4 4 4 
4 4 4 4 4 4 4 4 4 
4 4 4 4 4 4 4 4 4 
4 4 4 4 4 4 4 4 4 
4 4 4 4 4 4 4 4 4 
4 4 4 4 4 4 4 4 4 
4 4 4 4 4 4 4 4 4 
4 4 4 4 4 4 4 4 4 
4 4 4 4 4 4 4 4 4 
4 4 4 4 4 4 4 4 4 
4 4 4 4 4 4 4 4 4 
4 4 4 4 4 4 4 4 4 
4 4 4 4 4 4 4 4 4 
4 4 4 4 4 4 4 4 4 
4 4 4 4 4 4 4 4 4 
4 4 4 4 4 4 4 4 4 
4 4 4 4 4 4 4 4 4 
4 4 4 4 4 4 4 4 4 
4 4 4 4 4 4 4 4 4 
4 4 4 4 4 4 4 4 4 
4 4 4 4 4 4 4 4 4 
4 4 4 4 4 4 4 4 4 
4 4 4 4 4 4 4 4 4 
4 4 4 4 4 4 4 4 4 
4 4 4 4 4 4 4 4 4 
4 4 4 4 4 4 4 4 4 
4 4 4 4 4 4 4 4 4 
4 4 4 4 4 4 4 4 4 
4 4 4 4 4 4 4 4 4 
4 4 4 4 4 4 4 4 4 
4 4 4 4 4 4 4 4 4 
4 4 4 4 4 4 4 4 4 
4 4 4 4 4 4 4 4 4 
4 4 4 4 4 4 4 4 4 
4 4 4 4 4 4 4 4 4 
4 4 4 4 4 4 4 4 4 
4 4 4 4 4 4 4 4 4 
4 4 4 4 4 4 4 4 4 
4 4 4 4 4 4 4 4 4 
4 4 4 4 4 4 4 4 4 
4 4 4 4 4 4 4 4 4 
4 4 4 4 4 4 4 4 4 
4 4 4 4 4 4 4 4 4 
4 4 4 4 4 4 4 4 4 
4 4 4 4 4 4 4 4 4 
4 4 4 4 4 4 4 4 4 
4 4 4 4 4 4 4 4 4 
4 4 4 4 4 4 4 4 4 
4 4 4 4 4 4 4 4 4 
4 4 4 4 4 4 4 4 4 
4 4 4 4 4 4 4 4 4 
4 4 4 4 4 4 4 4 4 
4 4 4 4 4 4 4 4 4 
4 4 4 4 4 4 4 4 4 
4 4 4 4 4 4 4 4 4 
4 4 4 4 4 4 4 4 4 
4 4 4 4 4 4 4 4 4 
4 4 4 4 4 4 4 4 4 
4 4 4 4 4 4 4 4 4 
4 4 4 4 4 4 4 4 4 
4 4 4 4 4 4 4 4 4 
4 4 4 4 4 4 4 4 4 
4 4 4 4 4 4 4 4 4 
4 4 4 4 4 4 4 4 4 
4 4 4 4 4 4 4 4 4 
4 4 4 4 4 4 4 4 4 
4 4 4 4 4 4 4 4 4 
4 4 4 4 4 4 4 4 4 
4 4 4 4 4 4 4 4 4 
4 4 4 4 4 4 4 4 4 
4 4 4 4 4 4 4 4 4 
4 4 4 4 4 4 4 4 4 
4 4 4 4 4 4 4 4 4 
4 4 4 4 4 4 4 4 4 
4 4 4 4 4 4 4 4 4 
4 4 4 4 4 4 4 4 4 
4 4 4 4 4 4 4 4 4 
4 4 4 4 4 4 4 4 4 
4 4 4 4 4 4 4 4 4 
4 4 4 4 4 4 4 4 4 
4 4 4 4 4 4 4 4 4 
4 4 4 4 4 4 4 4 4 
4 4 4 4 4 4 4 4 4 
4 4 4 4 4 4 4 4 4 
4 4 4 4 4 4 4 4 4 
4 4 4 4 4 4 4 4 4 
4 4 4 4 4 4 4 4 4 
4 4 4 4 4 4 4 4 4 
4 4 4 4 4 4 4 4 4 
4 4 4 4 4 4 4 4 4 
4 4 4 4 4 4 4 4 4 
4 4 4 4 4 4 4 4 4 
4 4 4 4 4 4 4 4 4 
4 4 4 4 4 4 4 4 4 
4 4 4 4 4 4 4 4 4 
4 4 4 4 4 4 4 4 4 
4 4 4 4 4 4 4 4 4 
4 4 4 4 4 4 4 4 4 
4 4 4 4 4 4 4 4 4 
4 4 4 4 4 4 4 4 

POINT_DATA 6155
FIELD FieldData 1
regionID 1 6155 short
1 1 4 6 6 6 6 4 4 
4 6 6 10 10 10 6 7 7 
5 12 12 12 6 4 4 7 6 
1 2 2 8 2 8 1 2 1 
8 1 2 7 7 2 4 4 4 
4 4 5 5 5 2 2 2 2 
1 1 5 5 5 6 10 6 5 
5 5 5 5 2 2 2 6 2 
2 6 7 6 6 5 5 5 2 
2 2 6 6 5 2 2 5 6 
9 9 9 3 3 3 8 6 3 
3 3 10 10 10 5 5 3 6 
5 4 4 4 3 3 6 6 6 
4 5 9 9 9 9 5 12 12 
12 4 4 4 6 6 2 2 2 
6 5 2 2 2 2 2 5 5 
7 7 5 6 4 1 7 4 8 
4 4 4 5 1 5 1 6 7 
8 2 7 5 5 5 4 2 2 
2 4 2 5 6 2 2 7 5 
5 10 10 5 8 8 8 8 6 
5 3 3 5 5 4 10 10 10 
5 6 6 2 2 10 10 10 4 
4 5 4 6 5 5 2 2 2 
2 5 7 5 8 2 2 6 2 
2 2 3 6 4 4 4 2 1 
4 4 12 2 1 2 2 5 5 
6 4 7 4 4 4 5 2 2 
7 3 3 2 5 7 9 5 8 
2 2 2 8 2 5 8 2 2 
2 2 2 12 12 10 4 2 2 
2 9 5 6 5 12 9 2 6 
12 12 12 5 7 6 10 4 5 
8 12 12 4 2 8 5 10 10 
2 7 4 5 7 4 3 4 4 
5 5 2 3 10 5 5 5 8 
3 4 4 10 10 10 5 4 10 
10 2 10 1 2 7 2 4 2 
2 8 12 8 3 2 6 2 2 
2 2 2 2 9 4 8 3 8 
2 10 2 9 5 5 5 8 2 
2 2 2 4 8 2 2 3 3 
2 2 5 10 5 2 10 2 9 
2 5 2 10 10 2 9 3 5 
9 2 10 10 2 9 9 9 2 
2 4 4 10 8 10 4 5 2 
1 10 12 4 2 2 1 5 9 
3 3 8 8 5 2 12 9 3 
2 2 10 2 2 12 4 5 12 
3 2 8 9 9 9 6 4 2 
2 8 8 10 4 8 2 2 3 
12 2 4 2 12 10 2 12 2 
2 2 2 3 1 9 8 3 3 
9 4 2 6 12 5 10 5 2 
5 5 8 7 7 8 2 3 4 
3 2 2 4 8 2 2 2 3 
2 9 7 8 3 5 8 5 2 
2 2 7 3 12 2 2 10 9 
9 2 2 2 2 3 12 8 2 
2 2 1 4 8 9 9 3 5 
8 2 8 3 12 10 2 2 2 
3 5 9 2 10 10 10 9 10 
2 10 2 2 2 9 8 2 2 
3 2 8 2 1 3 8 12 3 
2 4 12 2 2 9 10 2 2 
9 8 10 2 3 3 10 3 12 
5 2 2 9 2 3 2 8 8 
5 3 2 2 2 9 12 5 2 
2 3 2 2 2 2 2 12 4 
2 2 10 10 4 10 9 5 8 
2 10 2 12 3 3 8 2 9 
2 2 3 3 8 2 2 12 2 
9 2 2 8 2 3 12 4 3 
2 2 2 2 2 4 9 2 2 
2 4 1 7 3 2 2 2 2 
9 2 2 9 4 3 8 2 8 
2 5 9 12 12 2 5 5 9 
12 3 2 2 4 9 2 12 2 
3 2 2 2 8 2 10 2 7 
2 4 2 5 8 2 2 2 9 
3 2 10 1 8 9 2 7 9 
1 8 8 4 8 8 2 2 3 
12 2 9 8 10 7 9 2 5 
9 3 3 2 2 2 3 9 8 
9 3 3 3 3 3 2 8 3 
2 4 7 12 12 2 2 12 2 
10 8 10 12 8 2 2 2 8 
2 9 9 3 9 12 2 2 2 
2 3 2 2 2 9 2 8 12 
4 2 4 4 2 2 8 3 2 
8 2 2 2 9 3 2 3 9 
3 2 10 3 2 2 5 12 2 
10 10 2 9 2 5 9 8 8 
2 9 2 2 8 12 2 2 8 
3 3 2 9 12 8 2 2 2 
3 2 2 8 8 10 10 2 2 
2 12 5 2 2 3 9 9 9 
3 2 3 8 2 2 2 2 9 
12 2 2 10 9 2 3 5 10 
2 2 2 8 2 5 2 2 12 
12 1 2 2 2 9 3 12 8 
10 3 2 2 2 2 2 8 8 
9 8 1 12 12 2 5 2 8 
3 2 3 12 2 2 8 2 2 
3 2 8 9 2 3 2 2 9 
2 8 12 12 8 9 10 2 12 
2 2 10 3 8 12 9 3 2 
4 2 8 3 9 2 10 10 3 
3 9 2 8 2 2 5 9 2 
8 9 5 7 8 10 5 2 2 
12 2 9 3 3 8 4 2 2 
2 5 10 10 10 8 12 2 3 
10 7 7 9 3 2 1 9 9 
5 3 2 2 8 9 10 5 8 
1 2 5 12 2 9 12 3 3 
2 2 9 8 3 9 5 8 8 
2 5 8 2 8 5 2 3 10 
2 5 3 3 3 1 2 2 9 
5 2 1 9 2 2 2 2 1 
10 10 8 2 12 12 3 1 3 
2 10 10 12 9 8 2 2 2 
2 9 3 8 2 2 2 2 2 
1 3 4 5 3 9 2 10 10 
9 9 1 12 1 3 1 9 8 
8 3 2 5 9 9 9 1 8 
12 9 3 1 5 5 3 2 2 
3 8 3 1 1 10 10 12 10 
12 2 1 9 8 12 7 2 10 
8 9 3 10 10 3 9 2 5 
1 12 10 9 2 8 2 2 2 
3 1 10 9 10 5 5 8 2 
12 2 5 2 7 2 9 1 1 
2 9 1 2 5 12 2 2 3 
3 5 5 3 7 2 8 9 10 
5 1 10 8 2 3 1 2 10 
10 5 10 7 9 7 9 3 8 
9 3 1 3 3 10 12 12 9 
2 2 8 3 10 3 8 2 2 
9 8 1 3 9 5 3 9 10 
8 5 5 2 2 3 9 3 1 
8 12 4 1 2 10 8 3 3 
1 2 2 2 10 9 1 10 2 
10 3 5 10 2 3 2 1 2 
1 2 8 1 1 7 1 4 1 
3 9 8 2 2 9 10 5 2 
7 9 5 4 9 5 7 4 1 
8 2 7 12 1 8 10 2 3 
12 9 12 1 3 2 3 3 2 
5 5 10 7 12 1 10 12 12 
10 8 5 3 2 10 1 2 3 
5 9 7 9 12 3 7 1 8 
1 2 5 3 1 3 10 8 7 
9 9 4 7 5 3 2 10 7 
9 2 3 5 9 5 9 2 12 
1 2 1 9 1 9 10 5 9 
10 1 12 9 3 2 12 5 3 
8 10 3 8 10 1 3 8 2 
5 5 5 5 12 8 8 2 2 
8 9 2 10 1 1 7 10 10 
1 1 12 5 10 8 12 7 2 
3 12 2 9 12 2 7 2 7 
2 2 9 7 9 9 12 7 3 
4 8 9 4 2 9 10 5 1 
10 3 1 7 12 3 3 4 12 
10 3 9 5 3 8 9 4 12 
2 5 7 12 5 2 1 7 8 
2 5 10 1 5 8 8 2 10 
5 2 10 9 4 5 3 7 10 
10 4 4 12 5 10 5 2 3 
10 10 1 10 7 7 10 4 2 
9 9 1 7 10 8 3 10 12 
5 7 2 5 5 1 5 8 9 
1 9 8 4 3 4 8 7 10 
10 5 2 10 1 7 1 8 8 
2 1 5 10 5 7 8 9 5 
2 9 1 1 4 5 4 1 10 
2 10 1 7 3 2 9 3 3 
7 10 2 3 3 3 5 4 10 
12 9 4 10 7 7 12 12 10 
2 10 1 5 9 9 2 4 12 
8 2 4 12 7 4 5 2 5 
3 12 4 8 10 3 5 7 5 
12 12 10 2 9 7 5 2 12 
3 1 5 5 5 7 5 2 5 
8 10 8 3 2 2 5 3 1 
7 4 10 1 7 12 9 2 10 
12 4 12 10 4 2 4 5 1 
9 2 4 4 10 1 5 2 5 
2 2 5 5 8 9 1 10 9 
7 2 1 10 7 10 10 5 2 
8 10 10 10 10 12 9 8 2 
12 3 3 8 1 5 5 12 5 
1 5 5 2 8 5 5 1 7 
8 8 4 7 7 5 1 5 5 
12 1 2 10 5 4 4 10 7 
10 2 3 3 3 8 7 5 4 
7 8 5 4 7 1 7 10 9 
5 4 9 10 10 2 8 10 5 
7 12 7 10 9 7 9 2 1 
3 2 7 5 5 10 1 5 4 
10 10 10 10 9 2 5 3 4 
12 4 12 4 12 7 7 8 12 
10 9 4 2 5 5 12 2 4 
1 10 5 12 8 1 4 5 5 
1 10 9 10 8 4 3 4 10 
7 5 8 5 1 12 2 1 8 
10 9 3 10 4 9 3 12 4 
4 3 3 9 1 1 12 5 10 
5 12 3 10 5 5 1 1 5 
5 8 7 1 1 7 10 12 4 
4 9 7 10 7 5 7 4 9 
7 1 12 7 7 1 4 4 5 
7 7 3 10 7 12 10 12 5 
4 9 5 3 4 1 12 3 5 
5 3 10 10 12 8 10 12 5 
1 5 5 4 7 7 12 12 4 
3 10 10 9 5 1 4 12 12 
12 4 8 1 8 4 10 4 4 
10 10 10 5 12 10 10 5 4 
1 9 1 1 4 8 5 1 4 
10 8 10 4 7 5 3 3 3 
3 5 3 1 5 9 12 3 12 
10 12 5 8 10 7 7 12 12 
7 3 10 10 5 12 7 9 8 
12 9 7 3 7 9 7 7 4 
5 8 12 5 5 1 7 5 4 
5 5 4 3 4 10 7 3 10 
7 8 10 7 10 5 1 3 8 
7 10 3 12 10 12 12 7 10 
5 5 10 10 10 12 1 12 7 
4 10 5 3 1 10 12 10 8 
4 4 8 4 9 5 4 9 10 
12 9 5 3 1 1 4 1 5 
5 4 10 5 4 7 12 3 7 
10 3 5 10 5 4 9 10 3 
4 10 5 5 9 12 8 4 7 
12 7 12 12 7 3 5 5 3 
4 7 4 12 3 12 10 10 5 
7 1 4 3 10 12 4 7 9 
3 12 3 4 8 12 3 1 10 
4 7 12 9 5 10 5 7 7 
1 10 10 4 7 10 3 5 12 
5 1 8 8 10 12 3 12 5 
12 10 3 5 3 8 3 10 3 
5 4 7 10 1 9 3 7 5 
12 10 1 3 1 9 4 12 1 
4 3 10 10 5 12 1 4 7 
4 12 10 5 5 1 4 5 10 
9 10 4 7 3 10 3 5 3 
8 7 12 5 12 10 7 4 5 
5 12 5 4 4 4 8 3 5 
4 10 5 10 4 12 3 4 7 
9 3 4 9 3 5 3 1 1 
4 4 10 7 4 3 8 10 5 
12 5 12 3 5 3 10 5 5 
1 10 5 3 4 10 5 4 10 
7 3 12 3 12 12 8 12 5 
10 5 12 1 4 9 5 8 10 
4 4 12 4 1 1 5 10 3 
10 3 3 1 5 4 10 7 7 
5 5 9 7 7 5 10 9 5 
4 12 5 8 3 12 4 10 7 
10 9 8 3 4 1 4 12 8 
5 10 4 4 4 3 4 4 1 
1 5 1 12 4 9 5 8 4 
5 3 10 4 3 7 8 12 10 
12 5 5 8 4 5 4 4 10 
10 10 3 5 7 4 12 8 7 
5 3 4 10 3 5 1 4 8 
9 4 3 10 4 3 10 7 7 
5 1 9 10 10 10 12 5 4 
9 10 5 5 5 4 4 8 12 
5 7 1 4 3 5 1 10 10 
5 4 7 10 10 4 4 10 12 
5 5 8 12 4 4 4 8 4 
9 12 12 10 4 4 4 5 5 
7 1 10 10 4 5 12 3 10 
10 12 4 10 7 4 4 4 5 
4 4 5 9 12 4 4 1 4 
9 9 5 7 12 10 5 10 4 
1 5 7 7 5 5 8 8 10 
5 8 5 5 1 5 4 1 5 
5 10 10 10 5 10 7 4 4 
4 10 5 10 7 12 12 4 9 
4 4 12 4 1 12 7 12 4 
5 1 4 9 1 5 10 8 7 
10 10 1 8 9 7 4 4 10 
5 4 10 4 9 12 5 4 12 
5 4 4 12 4 7 4 4 10 
4 10 1 9 1 5 5 8 4 
8 5 7 8 5 4 1 5 10 
5 4 12 7 10 7 10 10 9 
5 10 5 5 5 12 5 10 4 
5 10 1 5 8 12 4 7 7 
10 7 4 10 10 4 4 10 12 
10 4 5 5 5 7 12 5 5 
7 9 4 4 4 1 8 5 12 
5 5 5 5 13 13 13 10 10 
10 10 10 10 10 10 15 15 15 
15 15 15 15 15 15 15 15 15 
15 15 15 15 15 15 15 15 15 
12 15 15 15 15 15 15 15 15 
15 15 15 15 15 15 10 10 10 
10 10 10 10 10 10 14 14 14 
14 14 14 13 13 13 13 13 13 
13 13 13 13 13 13 13 14 14 
14 14 14 14 14 14 14 14 14 
10 10 10 10 10 10 10 10 10 
10 10 10 10 10 10 14 14 14 
14 10 10 10 10 10 15 15 15 
15 13 13 13 13 13 13 13 13 
13 10 15 15 15 15 15 10 10 
15 15 15 15 15 15 15 14 14 
14 14 15 15 10 10 10 10 10 
10 10 10 10 10 10 14 14 14 
10 10 10 10 10 14 14 14 14 
14 14 14 14 14 15 15 15 15 
15 15 15 15 15 15 15 15 15 
15 15 15 13 13 13 13 10 10 
10 10 10 14 14 15 10 15 15 
10 15 10 10 10 10 15 15 15 
15 15 15 15 13 15 10 10 10 